Program Version,EnergyPlus, Version 25.1.0-68a4a7c774, YMD=2025.10.07 00:02
1,5,Environment Title[],Latitude[deg],Longitude[deg],Time Zone[],Elevation[m]
2,8,Day of Simulation[],Month[],Day of Month[],DST Indicator[1=yes 0=no],Hour[],StartMinute[],EndMinute[],DayType
3,5,Cumulative Day of Simulation[],Month[],Day of Month[],DST Indicator[1=yes 0=no],DayType  ! When Daily Meters Requested
4,2,Cumulative Days of Simulation[],Month[]  ! When Monthly Meters Requested
5,1,Cumulative Days of Simulation[] ! When Run Period Meters Requested
6,1,Calendar Year of Simulation[] ! When Annual Meters Requested
73,1,Cooling:Electricity [J] !Hourly
111,1,Heating:Electricity [J] !Hourly
61,1,Electricity:HVAC [J] !Hourly
174,1,InteriorLights:Electricity [J] !Hourly
End of Data Dictionary
1,RUN_P1,  45.32, -75.67,  -5.00, 114.00
2,1, 1, 1, 0, 1, 0.00,60.00,Sunday
61,0.0
73,0.0
111,0.0
174,0.0
2,1, 1, 1, 0, 2, 0.00,60.00,Sunday
61,0.0
73,0.0
111,0.0
174,0.0
2,1, 1, 1, 0, 3, 0.00,60.00,Sunday
61,0.0
73,0.0
111,0.0
174,0.0
2,1, 1, 1, 0, 4, 0.00,60.00,Sunday
61,0.0
73,0.0
111,0.0
174,0.0
2,1, 1, 1, 0, 5, 0.00,60.00,Sunday
61,0.0
73,0.0
111,0.0
174,0.0
2,1, 1, 1, 0, 6, 0.00,60.00,Sunday
61,0.0
73,0.0
111,0.0
174,0.0
2,1, 1, 1, 0, 7, 0.00,60.00,Sunday
61,0.0
73,0.0
111,0.0
174,0.0
2,1, 1, 1, 0, 8, 0.00,60.00,Sunday
61,0.0
73,0.0
111,0.0
174,0.0
2,1, 1, 1, 0, 9, 0.00,60.00,Sunday
61,0.0
73,0.0
111,0.0
174,0.0
2,1, 1, 1, 0,10, 0.00,60.00,Sunday
61,0.0
73,0.0
111,0.0
174,0.0
2,1, 1, 1, 0,11, 0.00,60.00,Sunday
61,0.0
73,0.0
111,0.0
174,0.0
2,1, 1, 1, 0,12, 0.00,60.00,Sunday
61,0.0
73,0.0
111,0.0
174,0.0
2,1, 1, 1, 0,13, 0.00,60.00,Sunday
61,0.0
73,0.0
111,0.0
174,0.0
2,1, 1, 1, 0,14, 0.00,60.00,Sunday
61,0.0
73,0.0
111,0.0
174,0.0
2,1, 1, 1, 0,15, 0.00,60.00,Sunday
61,0.0
73,0.0
111,0.0
174,0.0
2,1, 1, 1, 0,16, 0.00,60.00,Sunday
61,0.0
73,0.0
111,0.0
174,0.0
2,1, 1, 1, 0,17, 0.00,60.00,Sunday
61,0.0
73,0.0
111,0.0
174,0.0
2,1, 1, 1, 0,18, 0.00,60.00,Sunday
61,0.0
73,0.0
111,0.0
174,0.0
2,1, 1, 1, 0,19, 0.00,60.00,Sunday
61,0.0
73,0.0
111,0.0
174,0.0
2,1, 1, 1, 0,20, 0.00,60.00,Sunday
61,0.0
73,0.0
111,0.0
174,0.0
2,1, 1, 1, 0,21, 0.00,60.00,Sunday
61,0.0
73,0.0
111,0.0
174,0.0
2,1, 1, 1, 0,22, 0.00,60.00,Sunday
61,0.0
73,0.0
111,0.0
174,0.0
2,1, 1, 1, 0,23, 0.00,60.00,Sunday
61,0.0
73,0.0
111,0.0
174,0.0
2,1, 1, 1, 0,24, 0.00,60.00,Sunday
61,0.0
73,0.0
111,0.0
174,0.0
2,2, 1, 2, 0, 1, 0.00,60.00,Monday
61,0.0
73,0.0
111,0.0
174,0.0
2,2, 1, 2, 0, 2, 0.00,60.00,Monday
61,0.0
73,0.0
111,0.0
174,0.0
2,2, 1, 2, 0, 3, 0.00,60.00,Monday
61,0.0
73,0.0
111,0.0
174,0.0
2,2, 1, 2, 0, 4, 0.00,60.00,Monday
61,0.0
73,0.0
111,0.0
174,0.0
2,2, 1, 2, 0, 5, 0.00,60.00,Monday
61,0.0
73,0.0
111,0.0
174,0.0
2,2, 1, 2, 0, 6, 0.00,60.00,Monday
61,0.0
73,0.0
111,0.0
174,0.0
2,2, 1, 2, 0, 7, 0.00,60.00,Monday
61,0.0
73,0.0
111,0.0
174,0.0
2,2, 1, 2, 0, 8, 0.00,60.00,Monday
61,55559325.63246544
73,0.0
111,55349657.105485946
174,3110400.0
2,2, 1, 2, 0, 9, 0.00,60.00,Monday
61,44104330.10804955
73,0.0
111,43894661.58107005
174,3110400.0
2,2, 1, 2, 0,10, 0.00,60.00,Monday
61,39075821.57108781
73,0.0
111,38866153.04410832
174,3110400.0
2,2, 1, 2, 0,11, 0.00,60.00,Monday
61,35806308.04543457
73,0.0
111,35596639.51845507
174,3110400.0
2,2, 1, 2, 0,12, 0.00,60.00,Monday
61,33446874.501286518
73,0.0
111,33237205.974307023
174,3110400.0
2,2, 1, 2, 0,13, 0.00,60.00,Monday
61,32027945.19962778
73,0.0
111,31818276.672648277
174,3110400.0
2,2, 1, 2, 0,14, 0.00,60.00,Monday
61,31348196.794538666
73,0.0
111,31138528.26755917
174,3110400.0
2,2, 1, 2, 0,15, 0.00,60.00,Monday
61,31066157.119356588
73,0.0
111,30856488.59237709
174,3110400.0
2,2, 1, 2, 0,16, 0.00,60.00,Monday
61,34975453.693912946
73,0.0
111,34765785.166933455
174,2073600.0
2,2, 1, 2, 0,17, 0.00,60.00,Monday
61,35568641.6254981
73,0.0
111,35358973.0985186
174,2073600.0
2,2, 1, 2, 0,18, 0.00,60.00,Monday
61,0.0
73,0.0
111,0.0
174,0.0
2,2, 1, 2, 0,19, 0.00,60.00,Monday
61,0.0
73,0.0
111,0.0
174,0.0
2,2, 1, 2, 0,20, 0.00,60.00,Monday
61,0.0
73,0.0
111,0.0
174,0.0
2,2, 1, 2, 0,21, 0.00,60.00,Monday
61,0.0
73,0.0
111,0.0
174,0.0
2,2, 1, 2, 0,22, 0.00,60.00,Monday
61,0.0
73,0.0
111,0.0
174,0.0
2,2, 1, 2, 0,23, 0.00,60.00,Monday
61,0.0
73,0.0
111,0.0
174,0.0
2,2, 1, 2, 0,24, 0.00,60.00,Monday
61,0.0
73,0.0
111,0.0
174,0.0
2,3, 1, 3, 0, 1, 0.00,60.00,Tuesday
61,0.0
73,0.0
111,0.0
174,0.0
2,3, 1, 3, 0, 2, 0.00,60.00,Tuesday
61,0.0
73,0.0
111,0.0
174,0.0
2,3, 1, 3, 0, 3, 0.00,60.00,Tuesday
61,0.0
73,0.0
111,0.0
174,0.0
2,3, 1, 3, 0, 4, 0.00,60.00,Tuesday
61,0.0
73,0.0
111,0.0
174,0.0
2,3, 1, 3, 0, 5, 0.00,60.00,Tuesday
61,0.0
73,0.0
111,0.0
174,0.0
2,3, 1, 3, 0, 6, 0.00,60.00,Tuesday
61,0.0
73,0.0
111,0.0
174,0.0
2,3, 1, 3, 0, 7, 0.00,60.00,Tuesday
61,0.0
73,0.0
111,0.0
174,0.0
2,3, 1, 3, 0, 8, 0.00,60.00,Tuesday
61,30837358.379629295
73,0.0
111,30627689.852649797
174,3110400.0
2,3, 1, 3, 0, 9, 0.00,60.00,Tuesday
61,18129479.812543884
73,0.0
111,17919811.28556439
174,3110400.0
2,3, 1, 3, 0,10, 0.00,60.00,Tuesday
61,12522463.79314113
73,0.0
111,12325944.432826292
174,3110400.0
2,3, 1, 3, 0,11, 0.00,60.00,Tuesday
61,9688773.758894056
73,0.0
111,9537910.904878303
174,3110400.0
2,3, 1, 3, 0,12, 0.00,60.00,Tuesday
61,8055898.394137826
73,0.0
111,7933581.604566147
174,3110400.0
2,3, 1, 3, 0,13, 0.00,60.00,Tuesday
61,7592971.354888191
73,0.0
111,7477839.7825844865
174,3110400.0
2,3, 1, 3, 0,14, 0.00,60.00,Tuesday
61,7034948.665125773
73,0.0
111,6928284.72695654
174,3110400.0
2,3, 1, 3, 0,15, 0.00,60.00,Tuesday
61,6371294.611937211
73,0.0
111,6274839.3306721635
174,3110400.0
2,3, 1, 3, 0,16, 0.00,60.00,Tuesday
61,8769446.213190336
73,0.0
111,8636458.561001891
174,2073600.0
2,3, 1, 3, 0,17, 0.00,60.00,Tuesday
61,10337087.809544217
73,0.0
111,10177904.157918207
174,2073600.0
2,3, 1, 3, 0,18, 0.00,60.00,Tuesday
61,0.0
73,0.0
111,0.0
174,0.0
2,3, 1, 3, 0,19, 0.00,60.00,Tuesday
61,0.0
73,0.0
111,0.0
174,0.0
2,3, 1, 3, 0,20, 0.00,60.00,Tuesday
61,0.0
73,0.0
111,0.0
174,0.0
2,3, 1, 3, 0,21, 0.00,60.00,Tuesday
61,0.0
73,0.0
111,0.0
174,0.0
2,3, 1, 3, 0,22, 0.00,60.00,Tuesday
61,0.0
73,0.0
111,0.0
174,0.0
2,3, 1, 3, 0,23, 0.00,60.00,Tuesday
61,0.0
73,0.0
111,0.0
174,0.0
2,3, 1, 3, 0,24, 0.00,60.00,Tuesday
61,0.0
73,0.0
111,0.0
174,0.0
2,4, 1, 4, 0, 1, 0.00,60.00,Wednesday
61,0.0
73,0.0
111,0.0
174,0.0
2,4, 1, 4, 0, 2, 0.00,60.00,Wednesday
61,0.0
73,0.0
111,0.0
174,0.0
2,4, 1, 4, 0, 3, 0.00,60.00,Wednesday
61,0.0
73,0.0
111,0.0
174,0.0
2,4, 1, 4, 0, 4, 0.00,60.00,Wednesday
61,0.0
73,0.0
111,0.0
174,0.0
2,4, 1, 4, 0, 5, 0.00,60.00,Wednesday
61,0.0
73,0.0
111,0.0
174,0.0
2,4, 1, 4, 0, 6, 0.00,60.00,Wednesday
61,0.0
73,0.0
111,0.0
174,0.0
2,4, 1, 4, 0, 7, 0.00,60.00,Wednesday
61,0.0
73,0.0
111,0.0
174,0.0
2,4, 1, 4, 0, 8, 0.00,60.00,Wednesday
61,55124182.337427594
73,0.0
111,54914513.8104481
174,3110400.0
2,4, 1, 4, 0, 9, 0.00,60.00,Wednesday
61,42604819.17272188
73,0.0
111,42395150.64574239
174,3110400.0
2,4, 1, 4, 0,10, 0.00,60.00,Wednesday
61,36787119.405156255
73,0.0
111,36577450.87817676
174,3110400.0
2,4, 1, 4, 0,11, 0.00,60.00,Wednesday
61,33642185.98680189
73,0.0
111,33432517.459822398
174,3110400.0
2,4, 1, 4, 0,12, 0.00,60.00,Wednesday
61,31552205.573632114
73,0.0
111,31342537.046652615
174,3110400.0
2,4, 1, 4, 0,13, 0.00,60.00,Wednesday
61,24116422.89368758
73,0.0
111,23906754.36670809
174,3110400.0
2,4, 1, 4, 0,14, 0.00,60.00,Wednesday
61,20232867.353793167
73,0.0
111,20023198.82681367
174,3110400.0
2,4, 1, 4, 0,15, 0.00,60.00,Wednesday
61,17160212.71474772
73,0.0
111,16950544.187768225
174,3110400.0
2,4, 1, 4, 0,16, 0.00,60.00,Wednesday
61,18391968.965083294
73,0.0
111,18182300.438103803
174,2073600.0
2,4, 1, 4, 0,17, 0.00,60.00,Wednesday
61,18185434.206920482
73,0.0
111,17975765.67994099
174,2073600.0
2,4, 1, 4, 0,18, 0.00,60.00,Wednesday
61,0.0
73,0.0
111,0.0
174,0.0
2,4, 1, 4, 0,19, 0.00,60.00,Wednesday
61,0.0
73,0.0
111,0.0
174,0.0
2,4, 1, 4, 0,20, 0.00,60.00,Wednesday
61,0.0
73,0.0
111,0.0
174,0.0
2,4, 1, 4, 0,21, 0.00,60.00,Wednesday
61,0.0
73,0.0
111,0.0
174,0.0
2,4, 1, 4, 0,22, 0.00,60.00,Wednesday
61,0.0
73,0.0
111,0.0
174,0.0
2,4, 1, 4, 0,23, 0.00,60.00,Wednesday
61,0.0
73,0.0
111,0.0
174,0.0
2,4, 1, 4, 0,24, 0.00,60.00,Wednesday
61,0.0
73,0.0
111,0.0
174,0.0
2,5, 1, 5, 0, 1, 0.00,60.00,Thursday
61,0.0
73,0.0
111,0.0
174,0.0
2,5, 1, 5, 0, 2, 0.00,60.00,Thursday
61,0.0
73,0.0
111,0.0
174,0.0
2,5, 1, 5, 0, 3, 0.00,60.00,Thursday
61,0.0
73,0.0
111,0.0
174,0.0
2,5, 1, 5, 0, 4, 0.00,60.00,Thursday
61,0.0
73,0.0
111,0.0
174,0.0
2,5, 1, 5, 0, 5, 0.00,60.00,Thursday
61,0.0
73,0.0
111,0.0
174,0.0
2,5, 1, 5, 0, 6, 0.00,60.00,Thursday
61,0.0
73,0.0
111,0.0
174,0.0
2,5, 1, 5, 0, 7, 0.00,60.00,Thursday
61,0.0
73,0.0
111,0.0
174,0.0
2,5, 1, 5, 0, 8, 0.00,60.00,Thursday
61,30386922.663813643
73,0.0
111,30177254.136834152
174,3110400.0
2,5, 1, 5, 0, 9, 0.00,60.00,Thursday
61,21003047.65577469
73,0.0
111,20793379.12879519
174,3110400.0
2,5, 1, 5, 0,10, 0.00,60.00,Thursday
61,16055987.41514305
73,0.0
111,15846318.888163557
174,3110400.0
2,5, 1, 5, 0,11, 0.00,60.00,Thursday
61,12364797.851214463
73,0.0
111,12170565.131272845
174,3110400.0
2,5, 1, 5, 0,12, 0.00,60.00,Thursday
61,10131016.892801208
73,0.0
111,9972855.458576834
174,3110400.0
2,5, 1, 5, 0,13, 0.00,60.00,Thursday
61,8576766.89326134
73,0.0
111,8443757.76120884
174,3110400.0
2,5, 1, 5, 0,14, 0.00,60.00,Thursday
61,7414790.611235019
73,0.0
111,7300646.229197131
174,3110400.0
2,5, 1, 5, 0,15, 0.00,60.00,Thursday
61,7392076.767318746
73,0.0
111,7277841.479181887
174,3110400.0
2,5, 1, 5, 0,16, 0.00,60.00,Thursday
61,10617785.080410428
73,0.0
111,10452287.757760944
174,2073600.0
2,5, 1, 5, 0,17, 0.00,60.00,Thursday
61,11111937.638311766
73,0.0
111,10938320.474980725
174,2073600.0
2,5, 1, 5, 0,18, 0.00,60.00,Thursday
61,0.0
73,0.0
111,0.0
174,0.0
2,5, 1, 5, 0,19, 0.00,60.00,Thursday
61,0.0
73,0.0
111,0.0
174,0.0
2,5, 1, 5, 0,20, 0.00,60.00,Thursday
61,0.0
73,0.0
111,0.0
174,0.0
2,5, 1, 5, 0,21, 0.00,60.00,Thursday
61,0.0
73,0.0
111,0.0
174,0.0
2,5, 1, 5, 0,22, 0.00,60.00,Thursday
61,0.0
73,0.0
111,0.0
174,0.0
2,5, 1, 5, 0,23, 0.00,60.00,Thursday
61,0.0
73,0.0
111,0.0
174,0.0
2,5, 1, 5, 0,24, 0.00,60.00,Thursday
61,0.0
73,0.0
111,0.0
174,0.0
2,6, 1, 6, 0, 1, 0.00,60.00,Friday
61,0.0
73,0.0
111,0.0
174,0.0
2,6, 1, 6, 0, 2, 0.00,60.00,Friday
61,0.0
73,0.0
111,0.0
174,0.0
2,6, 1, 6, 0, 3, 0.00,60.00,Friday
61,0.0
73,0.0
111,0.0
174,0.0
2,6, 1, 6, 0, 4, 0.00,60.00,Friday
61,0.0
73,0.0
111,0.0
174,0.0
2,6, 1, 6, 0, 5, 0.00,60.00,Friday
61,0.0
73,0.0
111,0.0
174,0.0
2,6, 1, 6, 0, 6, 0.00,60.00,Friday
61,0.0
73,0.0
111,0.0
174,0.0
2,6, 1, 6, 0, 7, 0.00,60.00,Friday
61,0.0
73,0.0
111,0.0
174,0.0
2,6, 1, 6, 0, 8, 0.00,60.00,Friday
61,43714144.96571183
73,0.0
111,43504476.43873234
174,3110400.0
2,6, 1, 6, 0, 9, 0.00,60.00,Friday
61,33100064.65436801
73,0.0
111,32890396.127388515
174,3110400.0
2,6, 1, 6, 0,10, 0.00,60.00,Friday
61,28844942.83670943
73,0.0
111,28635274.309729934
174,3110400.0
2,6, 1, 6, 0,11, 0.00,60.00,Friday
61,25864016.90543901
73,0.0
111,25654348.378459517
174,3110400.0
2,6, 1, 6, 0,12, 0.00,60.00,Friday
61,23480311.188091032
73,0.0
111,23270642.66111154
174,3110400.0
2,6, 1, 6, 0,13, 0.00,60.00,Friday
61,22653673.899387993
73,0.0
111,22444005.3724085
174,3110400.0
2,6, 1, 6, 0,14, 0.00,60.00,Friday
61,21755546.622214872
73,0.0
111,21545878.09523538
174,3110400.0
2,6, 1, 6, 0,15, 0.00,60.00,Friday
61,20751833.75314057
73,0.0
111,20542165.22616107
174,3110400.0
2,6, 1, 6, 0,16, 0.00,60.00,Friday
61,24132638.59393096
73,0.0
111,23922970.066951465
174,2073600.0
2,6, 1, 6, 0,17, 0.00,60.00,Friday
61,24230244.180112474
73,0.0
111,24020575.653132983
174,2073600.0
2,6, 1, 6, 0,18, 0.00,60.00,Friday
61,0.0
73,0.0
111,0.0
174,0.0
2,6, 1, 6, 0,19, 0.00,60.00,Friday
61,0.0
73,0.0
111,0.0
174,0.0
2,6, 1, 6, 0,20, 0.00,60.00,Friday
61,0.0
73,0.0
111,0.0
174,0.0
2,6, 1, 6, 0,21, 0.00,60.00,Friday
61,0.0
73,0.0
111,0.0
174,0.0
2,6, 1, 6, 0,22, 0.00,60.00,Friday
61,0.0
73,0.0
111,0.0
174,0.0
2,6, 1, 6, 0,23, 0.00,60.00,Friday
61,0.0
73,0.0
111,0.0
174,0.0
2,6, 1, 6, 0,24, 0.00,60.00,Friday
61,0.0
73,0.0
111,0.0
174,0.0
2,7, 1, 7, 0, 1, 0.00,60.00,Saturday
61,0.0
73,0.0
111,0.0
174,0.0
2,7, 1, 7, 0, 2, 0.00,60.00,Saturday
61,0.0
73,0.0
111,0.0
174,0.0
2,7, 1, 7, 0, 3, 0.00,60.00,Saturday
61,0.0
73,0.0
111,0.0
174,0.0
2,7, 1, 7, 0, 4, 0.00,60.00,Saturday
61,0.0
73,0.0
111,0.0
174,0.0
2,7, 1, 7, 0, 5, 0.00,60.00,Saturday
61,0.0
73,0.0
111,0.0
174,0.0
2,7, 1, 7, 0, 6, 0.00,60.00,Saturday
61,0.0
73,0.0
111,0.0
174,0.0
2,7, 1, 7, 0, 7, 0.00,60.00,Saturday
61,0.0
73,0.0
111,0.0
174,0.0
2,7, 1, 7, 0, 8, 0.00,60.00,Saturday
61,0.0
73,0.0
111,0.0
174,0.0
2,7, 1, 7, 0, 9, 0.00,60.00,Saturday
61,0.0
73,0.0
111,0.0
174,0.0
2,7, 1, 7, 0,10, 0.00,60.00,Saturday
61,0.0
73,0.0
111,0.0
174,0.0
2,7, 1, 7, 0,11, 0.00,60.00,Saturday
61,0.0
73,0.0
111,0.0
174,0.0
2,7, 1, 7, 0,12, 0.00,60.00,Saturday
61,0.0
73,0.0
111,0.0
174,0.0
2,7, 1, 7, 0,13, 0.00,60.00,Saturday
61,0.0
73,0.0
111,0.0
174,0.0
2,7, 1, 7, 0,14, 0.00,60.00,Saturday
61,0.0
73,0.0
111,0.0
174,0.0
2,7, 1, 7, 0,15, 0.00,60.00,Saturday
61,0.0
73,0.0
111,0.0
174,0.0
2,7, 1, 7, 0,16, 0.00,60.00,Saturday
61,0.0
73,0.0
111,0.0
174,0.0
2,7, 1, 7, 0,17, 0.00,60.00,Saturday
61,0.0
73,0.0
111,0.0
174,0.0
2,7, 1, 7, 0,18, 0.00,60.00,Saturday
61,0.0
73,0.0
111,0.0
174,0.0
2,7, 1, 7, 0,19, 0.00,60.00,Saturday
61,0.0
73,0.0
111,0.0
174,0.0
2,7, 1, 7, 0,20, 0.00,60.00,Saturday
61,0.0
73,0.0
111,0.0
174,0.0
2,7, 1, 7, 0,21, 0.00,60.00,Saturday
61,0.0
73,0.0
111,0.0
174,0.0
2,7, 1, 7, 0,22, 0.00,60.00,Saturday
61,0.0
73,0.0
111,0.0
174,0.0
2,7, 1, 7, 0,23, 0.00,60.00,Saturday
61,0.0
73,0.0
111,0.0
174,0.0
2,7, 1, 7, 0,24, 0.00,60.00,Saturday
61,0.0
73,0.0
111,0.0
174,0.0
2,8, 1, 8, 0, 1, 0.00,60.00,Sunday
61,0.0
73,0.0
111,0.0
174,0.0
2,8, 1, 8, 0, 2, 0.00,60.00,Sunday
61,0.0
73,0.0
111,0.0
174,0.0
2,8, 1, 8, 0, 3, 0.00,60.00,Sunday
61,0.0
73,0.0
111,0.0
174,0.0
2,8, 1, 8, 0, 4, 0.00,60.00,Sunday
61,0.0
73,0.0
111,0.0
174,0.0
2,8, 1, 8, 0, 5, 0.00,60.00,Sunday
61,0.0
73,0.0
111,0.0
174,0.0
2,8, 1, 8, 0, 6, 0.00,60.00,Sunday
61,0.0
73,0.0
111,0.0
174,0.0
2,8, 1, 8, 0, 7, 0.00,60.00,Sunday
61,0.0
73,0.0
111,0.0
174,0.0
2,8, 1, 8, 0, 8, 0.00,60.00,Sunday
61,0.0
73,0.0
111,0.0
174,0.0
2,8, 1, 8, 0, 9, 0.00,60.00,Sunday
61,0.0
73,0.0
111,0.0
174,0.0
2,8, 1, 8, 0,10, 0.00,60.00,Sunday
61,0.0
73,0.0
111,0.0
174,0.0
2,8, 1, 8, 0,11, 0.00,60.00,Sunday
61,0.0
73,0.0
111,0.0
174,0.0
2,8, 1, 8, 0,12, 0.00,60.00,Sunday
61,0.0
73,0.0
111,0.0
174,0.0
2,8, 1, 8, 0,13, 0.00,60.00,Sunday
61,0.0
73,0.0
111,0.0
174,0.0
2,8, 1, 8, 0,14, 0.00,60.00,Sunday
61,0.0
73,0.0
111,0.0
174,0.0
2,8, 1, 8, 0,15, 0.00,60.00,Sunday
61,0.0
73,0.0
111,0.0
174,0.0
2,8, 1, 8, 0,16, 0.00,60.00,Sunday
61,0.0
73,0.0
111,0.0
174,0.0
2,8, 1, 8, 0,17, 0.00,60.00,Sunday
61,0.0
73,0.0
111,0.0
174,0.0
2,8, 1, 8, 0,18, 0.00,60.00,Sunday
61,0.0
73,0.0
111,0.0
174,0.0
2,8, 1, 8, 0,19, 0.00,60.00,Sunday
61,0.0
73,0.0
111,0.0
174,0.0
2,8, 1, 8, 0,20, 0.00,60.00,Sunday
61,0.0
73,0.0
111,0.0
174,0.0
2,8, 1, 8, 0,21, 0.00,60.00,Sunday
61,0.0
73,0.0
111,0.0
174,0.0
2,8, 1, 8, 0,22, 0.00,60.00,Sunday
61,0.0
73,0.0
111,0.0
174,0.0
2,8, 1, 8, 0,23, 0.00,60.00,Sunday
61,0.0
73,0.0
111,0.0
174,0.0
2,8, 1, 8, 0,24, 0.00,60.00,Sunday
61,0.0
73,0.0
111,0.0
174,0.0
2,9, 1, 9, 0, 1, 0.00,60.00,Monday
61,0.0
73,0.0
111,0.0
174,0.0
2,9, 1, 9, 0, 2, 0.00,60.00,Monday
61,0.0
73,0.0
111,0.0
174,0.0
2,9, 1, 9, 0, 3, 0.00,60.00,Monday
61,0.0
73,0.0
111,0.0
174,0.0
2,9, 1, 9, 0, 4, 0.00,60.00,Monday
61,0.0
73,0.0
111,0.0
174,0.0
2,9, 1, 9, 0, 5, 0.00,60.00,Monday
61,0.0
73,0.0
111,0.0
174,0.0
2,9, 1, 9, 0, 6, 0.00,60.00,Monday
61,0.0
73,0.0
111,0.0
174,0.0
2,9, 1, 9, 0, 7, 0.00,60.00,Monday
61,0.0
73,0.0
111,0.0
174,0.0
2,9, 1, 9, 0, 8, 0.00,60.00,Monday
61,67054851.80100238
73,0.0
111,66845183.27402289
174,3110400.0
2,9, 1, 9, 0, 9, 0.00,60.00,Monday
61,65546012.6501642
73,0.0
111,65336344.12318471
174,3110400.0
2,9, 1, 9, 0,10, 0.00,60.00,Monday
61,57114562.995789506
73,0.0
111,56904894.468810014
174,3110400.0
2,9, 1, 9, 0,11, 0.00,60.00,Monday
61,50848183.62601469
73,0.0
111,50638515.09903519
174,3110400.0
2,9, 1, 9, 0,12, 0.00,60.00,Monday
61,46252629.061108604
73,0.0
111,46042960.53412911
174,3110400.0
2,9, 1, 9, 0,13, 0.00,60.00,Monday
61,42600260.70137808
73,0.0
111,42390592.17439858
174,3110400.0
2,9, 1, 9, 0,14, 0.00,60.00,Monday
61,38846913.553342864
73,0.0
111,38637245.026363365
174,3110400.0
2,9, 1, 9, 0,15, 0.00,60.00,Monday
61,35808220.33998689
73,0.0
111,35598551.81300739
174,3110400.0
2,9, 1, 9, 0,16, 0.00,60.00,Monday
61,37946742.62848143
73,0.0
111,37737074.101501934
174,2073600.0
2,9, 1, 9, 0,17, 0.00,60.00,Monday
61,38970014.48077733
73,0.0
111,38760345.95379783
174,2073600.0
2,9, 1, 9, 0,18, 0.00,60.00,Monday
61,0.0
73,0.0
111,0.0
174,0.0
2,9, 1, 9, 0,19, 0.00,60.00,Monday
61,0.0
73,0.0
111,0.0
174,0.0
2,9, 1, 9, 0,20, 0.00,60.00,Monday
61,0.0
73,0.0
111,0.0
174,0.0
2,9, 1, 9, 0,21, 0.00,60.00,Monday
61,0.0
73,0.0
111,0.0
174,0.0
2,9, 1, 9, 0,22, 0.00,60.00,Monday
61,0.0
73,0.0
111,0.0
174,0.0
2,9, 1, 9, 0,23, 0.00,60.00,Monday
61,0.0
73,0.0
111,0.0
174,0.0
2,9, 1, 9, 0,24, 0.00,60.00,Monday
61,0.0
73,0.0
111,0.0
174,0.0
2,10, 1,10, 0, 1, 0.00,60.00,Tuesday
61,0.0
73,0.0
111,0.0
174,0.0
2,10, 1,10, 0, 2, 0.00,60.00,Tuesday
61,0.0
73,0.0
111,0.0
174,0.0
2,10, 1,10, 0, 3, 0.00,60.00,Tuesday
61,0.0
73,0.0
111,0.0
174,0.0
2,10, 1,10, 0, 4, 0.00,60.00,Tuesday
61,0.0
73,0.0
111,0.0
174,0.0
2,10, 1,10, 0, 5, 0.00,60.00,Tuesday
61,0.0
73,0.0
111,0.0
174,0.0
2,10, 1,10, 0, 6, 0.00,60.00,Tuesday
61,0.0
73,0.0
111,0.0
174,0.0
2,10, 1,10, 0, 7, 0.00,60.00,Tuesday
61,0.0
73,0.0
111,0.0
174,0.0
2,10, 1,10, 0, 8, 0.00,60.00,Tuesday
61,55254189.81106098
73,0.0
111,55044521.28408149
174,3110400.0
2,10, 1,10, 0, 9, 0.00,60.00,Tuesday
61,44684870.65140251
73,0.0
111,44475202.12442301
174,3110400.0
2,10, 1,10, 0,10, 0.00,60.00,Tuesday
61,40615507.28218237
73,0.0
111,40405838.755202875
174,3110400.0
2,10, 1,10, 0,11, 0.00,60.00,Tuesday
61,38036449.12954331
73,0.0
111,37826780.60256381
174,3110400.0
2,10, 1,10, 0,12, 0.00,60.00,Tuesday
61,35796818.92445409
73,0.0
111,35587150.397474594
174,3110400.0
2,10, 1,10, 0,13, 0.00,60.00,Tuesday
61,31534487.717667505
73,0.0
111,31324819.190688007
174,3110400.0
2,10, 1,10, 0,14, 0.00,60.00,Tuesday
61,22869557.33630607
73,0.0
111,22659888.809326574
174,3110400.0
2,10, 1,10, 0,15, 0.00,60.00,Tuesday
61,19630495.716129035
73,0.0
111,19420827.18914954
174,3110400.0
2,10, 1,10, 0,16, 0.00,60.00,Tuesday
61,15321685.182079965
73,0.0
111,15120298.095167913
174,2073600.0
2,10, 1,10, 0,17, 0.00,60.00,Tuesday
61,10337522.442261618
73,0.0
111,10178978.590324674
174,2073600.0
2,10, 1,10, 0,18, 0.00,60.00,Tuesday
61,0.0
73,0.0
111,0.0
174,0.0
2,10, 1,10, 0,19, 0.00,60.00,Tuesday
61,0.0
73,0.0
111,0.0
174,0.0
2,10, 1,10, 0,20, 0.00,60.00,Tuesday
61,0.0
73,0.0
111,0.0
174,0.0
2,10, 1,10, 0,21, 0.00,60.00,Tuesday
61,0.0
73,0.0
111,0.0
174,0.0
2,10, 1,10, 0,22, 0.00,60.00,Tuesday
61,0.0
73,0.0
111,0.0
174,0.0
2,10, 1,10, 0,23, 0.00,60.00,Tuesday
61,0.0
73,0.0
111,0.0
174,0.0
2,10, 1,10, 0,24, 0.00,60.00,Tuesday
61,0.0
73,0.0
111,0.0
174,0.0
2,11, 1,11, 0, 1, 0.00,60.00,Wednesday
61,0.0
73,0.0
111,0.0
174,0.0
2,11, 1,11, 0, 2, 0.00,60.00,Wednesday
61,0.0
73,0.0
111,0.0
174,0.0
2,11, 1,11, 0, 3, 0.00,60.00,Wednesday
61,0.0
73,0.0
111,0.0
174,0.0
2,11, 1,11, 0, 4, 0.00,60.00,Wednesday
61,0.0
73,0.0
111,0.0
174,0.0
2,11, 1,11, 0, 5, 0.00,60.00,Wednesday
61,0.0
73,0.0
111,0.0
174,0.0
2,11, 1,11, 0, 6, 0.00,60.00,Wednesday
61,0.0
73,0.0
111,0.0
174,0.0
2,11, 1,11, 0, 7, 0.00,60.00,Wednesday
61,0.0
73,0.0
111,0.0
174,0.0
2,11, 1,11, 0, 8, 0.00,60.00,Wednesday
61,59992051.517264046
73,0.0
111,59782382.990284555
174,3110400.0
2,11, 1,11, 0, 9, 0.00,60.00,Wednesday
61,50609542.15647426
73,0.0
111,50399873.62949477
174,3110400.0
2,11, 1,11, 0,10, 0.00,60.00,Wednesday
61,46658235.351889625
73,0.0
111,46448566.82491013
174,3110400.0
2,11, 1,11, 0,11, 0.00,60.00,Wednesday
61,44424497.84342891
73,0.0
111,44214829.31644942
174,3110400.0
2,11, 1,11, 0,12, 0.00,60.00,Wednesday
61,43402889.44574895
73,0.0
111,43193220.91876945
174,3110400.0
2,11, 1,11, 0,13, 0.00,60.00,Wednesday
61,42614463.87591922
73,0.0
111,42404795.34893973
174,3110400.0
2,11, 1,11, 0,14, 0.00,60.00,Wednesday
61,40772935.97828102
73,0.0
111,40563267.45130153
174,3110400.0
2,11, 1,11, 0,15, 0.00,60.00,Wednesday
61,39101315.194962695
73,0.0
111,38891646.66798319
174,3110400.0
2,11, 1,11, 0,16, 0.00,60.00,Wednesday
61,42237500.17937434
73,0.0
111,42027831.65239484
174,2073600.0
2,11, 1,11, 0,17, 0.00,60.00,Wednesday
61,44622821.57902445
73,0.0
111,44413153.05204496
174,2073600.0
2,11, 1,11, 0,18, 0.00,60.00,Wednesday
61,0.0
73,0.0
111,0.0
174,0.0
2,11, 1,11, 0,19, 0.00,60.00,Wednesday
61,0.0
73,0.0
111,0.0
174,0.0
2,11, 1,11, 0,20, 0.00,60.00,Wednesday
61,0.0
73,0.0
111,0.0
174,0.0
2,11, 1,11, 0,21, 0.00,60.00,Wednesday
61,0.0
73,0.0
111,0.0
174,0.0
2,11, 1,11, 0,22, 0.00,60.00,Wednesday
61,0.0
73,0.0
111,0.0
174,0.0
2,11, 1,11, 0,23, 0.00,60.00,Wednesday
61,0.0
73,0.0
111,0.0
174,0.0
2,11, 1,11, 0,24, 0.00,60.00,Wednesday
61,0.0
73,0.0
111,0.0
174,0.0
2,12, 1,12, 0, 1, 0.00,60.00,Thursday
61,0.0
73,0.0
111,0.0
174,0.0
2,12, 1,12, 0, 2, 0.00,60.00,Thursday
61,0.0
73,0.0
111,0.0
174,0.0
2,12, 1,12, 0, 3, 0.00,60.00,Thursday
61,0.0
73,0.0
111,0.0
174,0.0
2,12, 1,12, 0, 4, 0.00,60.00,Thursday
61,0.0
73,0.0
111,0.0
174,0.0
2,12, 1,12, 0, 5, 0.00,60.00,Thursday
61,0.0
73,0.0
111,0.0
174,0.0
2,12, 1,12, 0, 6, 0.00,60.00,Thursday
61,0.0
73,0.0
111,0.0
174,0.0
2,12, 1,12, 0, 7, 0.00,60.00,Thursday
61,0.0
73,0.0
111,0.0
174,0.0
2,12, 1,12, 0, 8, 0.00,60.00,Thursday
61,67054851.80100238
73,0.0
111,66845183.27402289
174,3110400.0
2,12, 1,12, 0, 9, 0.00,60.00,Thursday
61,67054851.80100238
73,0.0
111,66845183.27402289
174,3110400.0
2,12, 1,12, 0,10, 0.00,60.00,Thursday
61,62507697.516802244
73,0.0
111,62298028.98982275
174,3110400.0
2,12, 1,12, 0,11, 0.00,60.00,Thursday
61,57347483.25216819
73,0.0
111,57137814.7251887
174,3110400.0
2,12, 1,12, 0,12, 0.00,60.00,Thursday
61,54301690.36521232
73,0.0
111,54092021.83823283
174,3110400.0
2,12, 1,12, 0,13, 0.00,60.00,Thursday
61,51226789.15670494
73,0.0
111,51017120.62972545
174,3110400.0
2,12, 1,12, 0,14, 0.00,60.00,Thursday
61,47476010.6789925
73,0.0
111,47266342.15201301
174,3110400.0
2,12, 1,12, 0,15, 0.00,60.00,Thursday
61,44260099.38044407
73,0.0
111,44050430.85346457
174,3110400.0
2,12, 1,12, 0,16, 0.00,60.00,Thursday
61,46562315.808203794
73,0.0
111,46352647.281224295
174,2073600.0
2,12, 1,12, 0,17, 0.00,60.00,Thursday
61,48279827.60665554
73,0.0
111,48070159.07967605
174,2073600.0
2,12, 1,12, 0,18, 0.00,60.00,Thursday
61,0.0
73,0.0
111,0.0
174,0.0
2,12, 1,12, 0,19, 0.00,60.00,Thursday
61,0.0
73,0.0
111,0.0
174,0.0
2,12, 1,12, 0,20, 0.00,60.00,Thursday
61,0.0
73,0.0
111,0.0
174,0.0
2,12, 1,12, 0,21, 0.00,60.00,Thursday
61,0.0
73,0.0
111,0.0
174,0.0
2,12, 1,12, 0,22, 0.00,60.00,Thursday
61,0.0
73,0.0
111,0.0
174,0.0
2,12, 1,12, 0,23, 0.00,60.00,Thursday
61,0.0
73,0.0
111,0.0
174,0.0
2,12, 1,12, 0,24, 0.00,60.00,Thursday
61,0.0
73,0.0
111,0.0
174,0.0
2,13, 1,13, 0, 1, 0.00,60.00,Friday
61,0.0
73,0.0
111,0.0
174,0.0
2,13, 1,13, 0, 2, 0.00,60.00,Friday
61,0.0
73,0.0
111,0.0
174,0.0
2,13, 1,13, 0, 3, 0.00,60.00,Friday
61,0.0
73,0.0
111,0.0
174,0.0
2,13, 1,13, 0, 4, 0.00,60.00,Friday
61,0.0
73,0.0
111,0.0
174,0.0
2,13, 1,13, 0, 5, 0.00,60.00,Friday
61,0.0
73,0.0
111,0.0
174,0.0
2,13, 1,13, 0, 6, 0.00,60.00,Friday
61,0.0
73,0.0
111,0.0
174,0.0
2,13, 1,13, 0, 7, 0.00,60.00,Friday
61,0.0
73,0.0
111,0.0
174,0.0
2,13, 1,13, 0, 8, 0.00,60.00,Friday
61,67054851.80100238
73,0.0
111,66845183.27402289
174,3110400.0
2,13, 1,13, 0, 9, 0.00,60.00,Friday
61,63826825.832956955
73,0.0
111,63617157.305977464
174,3110400.0
2,13, 1,13, 0,10, 0.00,60.00,Friday
61,56675315.449828774
73,0.0
111,56465646.92284927
174,3110400.0
2,13, 1,13, 0,11, 0.00,60.00,Friday
61,52171351.33986227
73,0.0
111,51961682.812882796
174,3110400.0
2,13, 1,13, 0,12, 0.00,60.00,Friday
61,48863316.45123861
73,0.0
111,48653647.9242591
174,3110400.0
2,13, 1,13, 0,13, 0.00,60.00,Friday
61,46497668.22641504
73,0.0
111,46287999.69943555
174,3110400.0
2,13, 1,13, 0,14, 0.00,60.00,Friday
61,44614474.62925784
73,0.0
111,44404806.10227834
174,3110400.0
2,13, 1,13, 0,15, 0.00,60.00,Friday
61,43159658.02348538
73,0.0
111,42949989.49650589
174,3110400.0
2,13, 1,13, 0,16, 0.00,60.00,Friday
61,45365085.989194155
73,0.0
111,45155417.46221466
174,2073600.0
2,13, 1,13, 0,17, 0.00,60.00,Friday
61,45370334.33886989
73,0.0
111,45160665.8118904
174,2073600.0
2,13, 1,13, 0,18, 0.00,60.00,Friday
61,0.0
73,0.0
111,0.0
174,0.0
2,13, 1,13, 0,19, 0.00,60.00,Friday
61,0.0
73,0.0
111,0.0
174,0.0
2,13, 1,13, 0,20, 0.00,60.00,Friday
61,0.0
73,0.0
111,0.0
174,0.0
2,13, 1,13, 0,21, 0.00,60.00,Friday
61,0.0
73,0.0
111,0.0
174,0.0
2,13, 1,13, 0,22, 0.00,60.00,Friday
61,0.0
73,0.0
111,0.0
174,0.0
2,13, 1,13, 0,23, 0.00,60.00,Friday
61,0.0
73,0.0
111,0.0
174,0.0
2,13, 1,13, 0,24, 0.00,60.00,Friday
61,0.0
73,0.0
111,0.0
174,0.0
2,14, 1,14, 0, 1, 0.00,60.00,Saturday
61,0.0
73,0.0
111,0.0
174,0.0
2,14, 1,14, 0, 2, 0.00,60.00,Saturday
61,0.0
73,0.0
111,0.0
174,0.0
2,14, 1,14, 0, 3, 0.00,60.00,Saturday
61,0.0
73,0.0
111,0.0
174,0.0
2,14, 1,14, 0, 4, 0.00,60.00,Saturday
61,0.0
73,0.0
111,0.0
174,0.0
2,14, 1,14, 0, 5, 0.00,60.00,Saturday
61,0.0
73,0.0
111,0.0
174,0.0
2,14, 1,14, 0, 6, 0.00,60.00,Saturday
61,0.0
73,0.0
111,0.0
174,0.0
2,14, 1,14, 0, 7, 0.00,60.00,Saturday
61,0.0
73,0.0
111,0.0
174,0.0
2,14, 1,14, 0, 8, 0.00,60.00,Saturday
61,0.0
73,0.0
111,0.0
174,0.0
2,14, 1,14, 0, 9, 0.00,60.00,Saturday
61,0.0
73,0.0
111,0.0
174,0.0
2,14, 1,14, 0,10, 0.00,60.00,Saturday
61,0.0
73,0.0
111,0.0
174,0.0
2,14, 1,14, 0,11, 0.00,60.00,Saturday
61,0.0
73,0.0
111,0.0
174,0.0
2,14, 1,14, 0,12, 0.00,60.00,Saturday
61,0.0
73,0.0
111,0.0
174,0.0
2,14, 1,14, 0,13, 0.00,60.00,Saturday
61,0.0
73,0.0
111,0.0
174,0.0
2,14, 1,14, 0,14, 0.00,60.00,Saturday
61,0.0
73,0.0
111,0.0
174,0.0
2,14, 1,14, 0,15, 0.00,60.00,Saturday
61,0.0
73,0.0
111,0.0
174,0.0
2,14, 1,14, 0,16, 0.00,60.00,Saturday
61,0.0
73,0.0
111,0.0
174,0.0
2,14, 1,14, 0,17, 0.00,60.00,Saturday
61,0.0
73,0.0
111,0.0
174,0.0
2,14, 1,14, 0,18, 0.00,60.00,Saturday
61,0.0
73,0.0
111,0.0
174,0.0
2,14, 1,14, 0,19, 0.00,60.00,Saturday
61,0.0
73,0.0
111,0.0
174,0.0
2,14, 1,14, 0,20, 0.00,60.00,Saturday
61,0.0
73,0.0
111,0.0
174,0.0
2,14, 1,14, 0,21, 0.00,60.00,Saturday
61,0.0
73,0.0
111,0.0
174,0.0
2,14, 1,14, 0,22, 0.00,60.00,Saturday
61,0.0
73,0.0
111,0.0
174,0.0
2,14, 1,14, 0,23, 0.00,60.00,Saturday
61,0.0
73,0.0
111,0.0
174,0.0
2,14, 1,14, 0,24, 0.00,60.00,Saturday
61,0.0
73,0.0
111,0.0
174,0.0
2,15, 1,15, 0, 1, 0.00,60.00,Sunday
61,0.0
73,0.0
111,0.0
174,0.0
2,15, 1,15, 0, 2, 0.00,60.00,Sunday
61,0.0
73,0.0
111,0.0
174,0.0
2,15, 1,15, 0, 3, 0.00,60.00,Sunday
61,0.0
73,0.0
111,0.0
174,0.0
2,15, 1,15, 0, 4, 0.00,60.00,Sunday
61,0.0
73,0.0
111,0.0
174,0.0
2,15, 1,15, 0, 5, 0.00,60.00,Sunday
61,0.0
73,0.0
111,0.0
174,0.0
2,15, 1,15, 0, 6, 0.00,60.00,Sunday
61,0.0
73,0.0
111,0.0
174,0.0
2,15, 1,15, 0, 7, 0.00,60.00,Sunday
61,0.0
73,0.0
111,0.0
174,0.0
2,15, 1,15, 0, 8, 0.00,60.00,Sunday
61,0.0
73,0.0
111,0.0
174,0.0
2,15, 1,15, 0, 9, 0.00,60.00,Sunday
61,0.0
73,0.0
111,0.0
174,0.0
2,15, 1,15, 0,10, 0.00,60.00,Sunday
61,0.0
73,0.0
111,0.0
174,0.0
2,15, 1,15, 0,11, 0.00,60.00,Sunday
61,0.0
73,0.0
111,0.0
174,0.0
2,15, 1,15, 0,12, 0.00,60.00,Sunday
61,0.0
73,0.0
111,0.0
174,0.0
2,15, 1,15, 0,13, 0.00,60.00,Sunday
61,0.0
73,0.0
111,0.0
174,0.0
2,15, 1,15, 0,14, 0.00,60.00,Sunday
61,0.0
73,0.0
111,0.0
174,0.0
2,15, 1,15, 0,15, 0.00,60.00,Sunday
61,0.0
73,0.0
111,0.0
174,0.0
2,15, 1,15, 0,16, 0.00,60.00,Sunday
61,0.0
73,0.0
111,0.0
174,0.0
2,15, 1,15, 0,17, 0.00,60.00,Sunday
61,0.0
73,0.0
111,0.0
174,0.0
2,15, 1,15, 0,18, 0.00,60.00,Sunday
61,0.0
73,0.0
111,0.0
174,0.0
2,15, 1,15, 0,19, 0.00,60.00,Sunday
61,0.0
73,0.0
111,0.0
174,0.0
2,15, 1,15, 0,20, 0.00,60.00,Sunday
61,0.0
73,0.0
111,0.0
174,0.0
2,15, 1,15, 0,21, 0.00,60.00,Sunday
61,0.0
73,0.0
111,0.0
174,0.0
2,15, 1,15, 0,22, 0.00,60.00,Sunday
61,0.0
73,0.0
111,0.0
174,0.0
2,15, 1,15, 0,23, 0.00,60.00,Sunday
61,0.0
73,0.0
111,0.0
174,0.0
2,15, 1,15, 0,24, 0.00,60.00,Sunday
61,0.0