Program Version,EnergyPlus, Version 25.1.0-68a4a7c774, YMD=2025.10.07 00:02
1,5,Environment Title[],Latitude[deg],Longitude[deg],Time Zone[],Elevation[m]
2,8,Day of Simulation[],Month[],Day of Month[],DST Indicator[1=yes 0=no],Hour[],StartMinute[],EndMinute[],DayType
3,5,Cumulative Day of Simulation[],Month[],Day of Month[],DST Indicator[1=yes 0=no],DayType  ! When Daily Report Variables Requested
4,2,Cumulative Days of Simulation[],Month[]  ! When Monthly Report Variables Requested
5,1,Cumulative Days of Simulation[] ! When Run Period Report Variables Requested
6,1,Calendar Year of Simulation[] ! When Annual Report Variables Requested
7,1,Environment,Site Outdoor Air Drybulb Temperature [C] !Hourly
8,1,Environment,Site Wind Speed [m/s] !Hourly
9,1,Environment,Site Direct Solar Radiation Rate per Area [W/m2] !Hourly
318,1,ZONE 1,Zone Mean Air Temperature [C] !Hourly
319,1,ZONE 1,Zone Mean Air Humidity Ratio [kgWater/kgDryAir] !Hourly
616,1,ZONE 1 PTHP,Zone Packaged Terminal Heat Pump Total Heating Rate [W] !Hourly
617,1,ZONE 1 PTHP,Zone Packaged Terminal Heat Pump Electricity Rate [W] !Hourly
73,1,Cooling:Electricity [J] !Hourly
111,1,Heating:Electricity [J] !Hourly
61,1,Electricity:HVAC [J] !Hourly
174,1,InteriorLights:Electricity [J] !Hourly
End of Data Dictionary
1,RUN_P1,  45.32, -75.67,  -5.00, 114.00
2,1, 1, 1, 0, 1, 0.00,60.00,Sunday
7,-3.5333333333333337
8,5.758333333333334
9,0.0
318,-1.3295733201627689
319,0.0016967769730341653
616,0.0
617,0.0
61,0.0
73,0.0
111,0.0
174,0.0
2,1, 1, 1, 0, 2, 0.00,60.00,Sunday
7,2.4
8,4.7749999999999995
9,0.0
318,1.413758540833399
319,0.0034435776476524696
616,0.0
617,0.0
61,0.0
73,0.0
111,0.0
174,0.0
2,1, 1, 1, 0, 3, 0.00,60.00,Sunday
7,5.183333333333334
8,4.108333333333333
9,0.0
318,3.059637114819227
319,0.004219194075387129
616,0.0
617,0.0
61,0.0
73,0.0
111,0.0
174,0.0
2,1, 1, 1, 0, 4, 0.00,60.00,Sunday
7,6.508333333333333
8,5.533333333333334
9,0.0
318,4.231457830010053
319,0.004372381566732406
616,0.0
617,0.0
61,0.0
73,0.0
111,0.0
174,0.0
2,1, 1, 1, 0, 5, 0.00,60.00,Sunday
7,6.741666666666667
8,5.708333333333333
9,0.0
318,4.906110773291211
319,0.0041050497203511905
616,0.0
617,0.0
61,0.0
73,0.0
111,0.0
174,0.0
2,1, 1, 1, 0, 6, 0.00,60.00,Sunday
7,6.583333333333333
8,5.816666666666666
9,0.0
318,5.240218547192525
319,0.003700262062038514
616,0.0
617,0.0
61,0.0
73,0.0
111,0.0
174,0.0
2,1, 1, 1, 0, 7, 0.00,60.00,Sunday
7,4.633333333333334
8,5.583333333333333
9,0.0
318,4.747597884674163
319,0.0033076881441007574
616,0.0
617,0.0
61,0.0
73,0.0
111,0.0
174,0.0
2,1, 1, 1, 0, 8, 0.00,60.00,Sunday
7,2.658333333333333
8,4.3583333333333325
9,50.97222222222222
318,3.846669753313478
319,0.00308260677363052
616,0.0
617,0.0
61,0.0
73,0.0
111,0.0
174,0.0
2,1, 1, 1, 0, 9, 0.00,60.00,Sunday
7,2.5500000000000003
8,5.008333333333334
9,346.25
318,4.430204583813389
319,0.0031117220273209657
616,0.0
617,0.0
61,0.0
73,0.0
111,0.0
174,0.0
2,1, 1, 1, 0,10, 0.00,60.00,Sunday
7,3.0916666666666663
8,5.800000000000001
9,350.0833333333333
318,5.485040687723402
319,0.0031938681881856206
616,0.0
617,0.0
61,0.0
73,0.0
111,0.0
174,0.0
2,1, 1, 1, 0,11, 0.00,60.00,Sunday
7,3.65
8,6.616666666666667
9,35.49999999999999
318,5.814068407590917
319,0.0031462281435872337
616,0.0
617,0.0
61,0.0
73,0.0
111,0.0
174,0.0
2,1, 1, 1, 0,12, 0.00,60.00,Sunday
7,3.899999999999999
8,7.7250000000000005
9,4.333333333333333
318,5.886467065353486
319,0.002990164289929093
616,0.0
617,0.0
61,0.0
73,0.0
111,0.0
174,0.0
2,1, 1, 1, 0,13, 0.00,60.00,Sunday
7,3.899999999999999
8,9.674999999999999
9,19.666666666666668
318,5.994066109509194
319,0.0027978102814370104
616,0.0
617,0.0
61,0.0
73,0.0
111,0.0
174,0.0
2,1, 1, 1, 0,14, 0.00,60.00,Sunday
7,2.908333333333333
8,11.325000000000001
9,3.5833333333333326
318,5.759887505419865
319,0.0025966223944226094
616,0.0
617,0.0
61,0.0
73,0.0
111,0.0
174,0.0
2,1, 1, 1, 0,15, 0.00,60.00,Sunday
7,1.2666666666666668
8,10.066666666666666
9,5.25
318,5.044151865646243
319,0.0023763326832515054
616,0.0
617,0.0
61,0.0
73,0.0
111,0.0
174,0.0
2,1, 1, 1, 0,16, 0.00,60.00,Sunday
7,0.25
8,10.008333333333333
9,10.083333333333334
318,4.360831308387452
319,0.002056477746014901
616,0.0
617,0.0
61,0.0
73,0.0
111,0.0
174,0.0
2,1, 1, 1, 0,17, 0.00,60.00,Sunday
7,-0.6416666666666667
8,8.700000000000001
9,1.083333333333333
318,3.6235953583789993
319,0.0018139591368452623
616,0.0
617,0.0
61,0.0
73,0.0
111,0.0
174,0.0
2,1, 1, 1, 0,18, 0.00,60.00,Sunday
7,-1.0999999999999999
8,7.2
9,0.0
318,2.933153057561928
319,0.001705287096349614
616,0.0
617,0.0
61,0.0
73,0.0
111,0.0
174,0.0
2,1, 1, 1, 0,19, 0.00,60.00,Sunday
7,-1.45
8,6.733333333333333
9,0.0
318,2.41845263321505
319,0.0017277549441724052
616,0.0
617,0.0
61,0.0
73,0.0
111,0.0
174,0.0
2,1, 1, 1, 0,20, 0.00,60.00,Sunday
7,-2.341666666666667
8,6.3999999999999995
9,0.0
318,1.728410370107831
319,0.001677936685105772
616,0.0
617,0.0
61,0.0
73,0.0
111,0.0
174,0.0
2,1, 1, 1, 0,21, 0.00,60.00,Sunday
7,-3.733333333333333
8,7.858333333333333
9,0.0
318,0.8192449276208192
319,0.001430770587805743
616,0.0
617,0.0
61,0.0
73,0.0
111,0.0
174,0.0
2,1, 1, 1, 0,22, 0.00,60.00,Sunday
7,-5.391666666666667
8,8.083333333333334
9,0.0
318,-0.26208522557667685
319,0.001170899263159966
616,0.0
617,0.0
61,0.0
73,0.0
111,0.0
174,0.0
2,1, 1, 1, 0,23, 0.00,60.00,Sunday
7,-7.091666666666666
8,7.033333333333335
9,0.0
318,-1.4240324884962885
319,0.0010079287616404275
616,0.0
617,0.0
61,0.0
73,0.0
111,0.0
174,0.0
2,1, 1, 1, 0,24, 0.00,60.00,Sunday
7,-8.441666666666666
8,6.525000000000001
9,0.0
318,-2.513574980668366
319,0.0009941846828392736
616,0.0
617,0.0
61,0.0
73,0.0
111,0.0
174,0.0
2,2, 1, 2, 0, 1, 0.00,60.00,Monday
7,-8.9
8,5.758333333333334
9,0.0
318,-3.267660936158715
319,0.0009807696049658888
616,0.0
617,0.0
61,0.0
73,0.0
111,0.0
174,0.0
2,2, 1, 2, 0, 2, 0.00,60.00,Monday
7,-9.191666666666666
8,3.4916666666666667
9,0.0
318,-3.8305388279914077
319,0.000917740345940689
616,0.0
617,0.0
61,0.0
73,0.0
111,0.0
174,0.0
2,2, 1, 2, 0, 3, 0.00,60.00,Monday
7,-9.75
8,3.483333333333333
9,0.0
318,-4.461922172751522
319,0.0009288948706156615
616,0.0
617,0.0
61,0.0
73,0.0
111,0.0
174,0.0
2,2, 1, 2, 0, 4, 0.00,60.00,Monday
7,-10.0
8,4.3999999999999995
9,0.0
318,-4.9685038957451875
319,0.0009561998880674851
616,0.0
617,0.0
61,0.0
73,0.0
111,0.0
174,0.0
2,2, 1, 2, 0, 5, 0.00,60.00,Monday
7,-10.350000000000001
8,3.466666666666667
9,0.0
318,-5.420619279456293
319,0.0009561544133729719
616,0.0
617,0.0
61,0.0
73,0.0
111,0.0
174,0.0
2,2, 1, 2, 0, 6, 0.00,60.00,Monday
7,-10.600000000000001
8,2.975
9,0.0
318,-5.8476732864954
319,0.0009534029036399686
616,0.0
617,0.0
61,0.0
73,0.0
111,0.0
174,0.0
2,2, 1, 2, 0, 7, 0.00,60.00,Monday
7,-10.600000000000001
8,3.1
9,0.0
318,-6.119972411881748
319,0.0009530207323988205
616,0.0
617,0.0
61,0.0
73,0.0
111,0.0
174,0.0
2,2, 1, 2, 0, 8, 0.00,60.00,Monday
7,-10.600000000000001
8,3.5666666666666664
9,5.138888888888888
318,18.68951522660075
319,0.0013208423692850219
616,12105.932153676295
617,15433.146009018179
61,55559325.63246544
73,0.0
111,55349657.105485946
174,3110400.0
2,2, 1, 2, 0, 9, 0.00,60.00,Monday
7,-10.25
8,4.716666666666667
9,38.416666666666664
318,20.00178256898078
319,0.0015558597845905825
616,8685.80698264142
617,12251.20280779154
61,44104330.10804955
73,0.0
111,43894661.58107005
174,3110400.0
2,2, 1, 2, 0,10, 0.00,60.00,Monday
7,-9.65
8,5.941666666666666
9,70.25
318,20.001769755449857
319,0.001581906293986108
616,7345.182615164308
617,10854.394880857724
61,39075821.57108781
73,0.0
111,38866153.04410832
174,3110400.0
2,2, 1, 2, 0,11, 0.00,60.00,Monday
7,-9.108333333333333
8,7.683333333333334
9,104.91666666666667
318,20.001661269882472
319,0.0015833614894786296
616,6498.149937598311
617,9946.196679287379
61,35806308.04543457
73,0.0
111,35596639.51845507
174,3110400.0
2,2, 1, 2, 0,12, 0.00,60.00,Monday
7,-8.549999999999999
8,8.775
9,77.58333333333333
318,20.001524667122627
319,0.0016069447741416546
616,5911.219071996799
617,9290.798472579589
61,33446874.501286518
73,0.0
111,33237205.974307023
174,3110400.0
2,2, 1, 2, 0,13, 0.00,60.00,Monday
7,-8.299999999999999
8,9.191666666666666
9,42.833333333333336
318,20.00144450980756
319,0.0016589568788716038
616,5547.3956502983465
617,8896.651444341049
61,32027945.19962778
73,0.0
111,31818276.672648277
174,3110400.0
2,2, 1, 2, 0,14, 0.00,60.00,Monday
7,-8.299999999999999
8,8.291666666666666
9,4.749999999999999
318,20.001470230607104
319,0.0016997343910797873
616,5352.419968955367
617,8707.832442927409
61,31348196.794538666
73,0.0
111,31138528.26755917
174,3110400.0
2,2, 1, 2, 0,15, 0.00,60.00,Monday
7,-8.299999999999999
8,7.8500000000000005
9,0.08333333333333331
318,20.00149725079171
319,0.0017089377735358842
616,5270.801916940859
617,8629.488088710163
61,31066157.119356588
73,0.0
111,30856488.59237709
174,3110400.0
2,2, 1, 2, 0,16, 0.00,60.00,Monday
7,-8.65
8,8.1
9,0.0
318,20.001192402196047
319,0.001456409415419647
616,6371.3951496556365
617,9715.403803864707
61,34975453.693912946
73,0.0
111,34765785.166933455
174,2073600.0
2,2, 1, 2, 0,17, 0.00,60.00,Monday
7,-8.9
8,9.033333333333333
9,0.0
318,20.000608525058798
319,0.0013196519726139239
616,6561.022921755008
617,9880.17822930503
61,35568641.6254981
73,0.0
111,35358973.0985186
174,2073600.0
2,2, 1, 2, 0,18, 0.00,60.00,Monday
7,-8.9
8,10.341666666666669
9,0.0
318,5.242447927382732
319,0.0011990747375740793
616,0.0
617,0.0
61,0.0
73,0.0
111,0.0
174,0.0
2,2, 1, 2, 0,19, 0.00,60.00,Monday
7,-8.9
8,10.158333333333333
9,0.0
318,1.4646932026504063
319,0.001216285744114082
616,0.0
617,0.0
61,0.0
73,0.0
111,0.0
174,0.0
2,2, 1, 2, 0,20, 0.00,60.00,Monday
7,-8.258333333333333
8,9.525
9,0.0
318,0.19906155275361573
319,0.001337134745351725
616,0.0
617,0.0
61,0.0
73,0.0
111,0.0
174,0.0
2,2, 1, 2, 0,21, 0.00,60.00,Monday
7,-7.45
8,9.924999999999999
9,0.0
318,-0.4556753152754525
319,0.0014863651821692442
616,0.0
617,0.0
61,0.0
73,0.0
111,0.0
174,0.0
2,2, 1, 2, 0,22, 0.00,60.00,Monday
7,-6.908333333333334
8,9.950000000000001
9,0.0
318,-0.9287697351142897
319,0.001596010218741386
616,0.0
617,0.0
61,0.0
73,0.0
111,0.0
174,0.0
2,2, 1, 2, 0,23, 0.00,60.00,Monday
7,-6.3500000000000005
8,8.766666666666667
9,0.0
318,-1.1824525733272768
319,0.001771712778032595
616,0.0
617,0.0
61,0.0
73,0.0
111,0.0
174,0.0
2,2, 1, 2, 0,24, 0.00,60.00,Monday
7,-5.808333333333333
8,7.108333333333333
9,0.0
318,-1.2929047668108555
319,0.0019535359347060874
616,0.0
617,0.0
61,0.0
73,0.0
111,0.0
174,0.0
2,3, 1, 3, 0, 1, 0.00,60.00,Tuesday
7,-5.25
8,6.866666666666667
9,0.0
318,-1.2991837653032132
319,0.0020999119325852775
616,0.0
617,0.0
61,0.0
73,0.0
111,0.0
174,0.0
2,3, 1, 3, 0, 2, 0.00,60.00,Tuesday
7,-4.3583333333333325
8,7.2
9,0.0
318,-1.0969699262207866
319,0.0022379443484430105
616,0.0
617,0.0
61,0.0
73,0.0
111,0.0
174,0.0
2,3, 1, 3, 0, 3, 0.00,60.00,Tuesday
7,-3.899999999999999
8,6.091666666666666
9,0.0
318,-0.932344843675911
319,0.0023683874252461296
616,0.0
617,0.0
61,0.0
73,0.0
111,0.0
174,0.0
2,3, 1, 3, 0, 4, 0.00,60.00,Tuesday
7,-3.5500000000000003
8,5.125
9,0.0
318,-0.8469579409108393
319,0.002435179009027441
616,0.0
617,0.0
61,0.0
73,0.0
111,0.0
174,0.0
2,3, 1, 3, 0, 5, 0.00,60.00,Tuesday
7,-3.3000000000000003
8,5.175000000000001
9,0.0
318,-0.7242886530331365
319,0.002528320218204485
616,0.0
617,0.0
61,0.0
73,0.0
111,0.0
174,0.0
2,3, 1, 3, 0, 6, 0.00,60.00,Tuesday
7,-3.008333333333333
8,3.841666666666667
9,0.0
318,-0.6235843628021168
319,0.002576159073922973
616,0.0
617,0.0
61,0.0
73,0.0
111,0.0
174,0.0
2,3, 1, 3, 0, 7, 0.00,60.00,Tuesday
7,-2.8000000000000003
8,3.4416666666666664
9,0.0
318,-0.5216164984626853
319,0.0026424726702438685
616,0.0
617,0.0
61,0.0
73,0.0
111,0.0
174,0.0
2,3, 1, 3, 0, 8, 0.00,60.00,Tuesday
7,-1.8083333333333333
8,4.191666666666666
9,0.0
318,19.50000411300269
319,0.0031436448387949113
616,8422.895286055993
617,8565.932883230358
61,30837358.379629295
73,0.0
111,30627689.852649797
174,3110400.0
2,3, 1, 3, 0, 9, 0.00,60.00,Tuesday
7,0.5333333333333332
8,4.3999999999999995
9,0.0
318,20.000106926126243
319,0.0038042962780535585
616,5262.42760400631
617,5035.966614595523
61,18129479.812543884
73,0.0
111,17919811.28556439
174,3110400.0
2,3, 1, 3, 0,10, 0.00,60.00,Tuesday
7,2.341666666666667
8,6.208333333333333
9,0.0
318,20.000772983043834
319,0.004371561746356028
616,3939.7611502892983
617,3478.462164761426
61,12522463.79314113
73,0.0
111,12325944.432826292
174,3110400.0
2,3, 1, 3, 0,11, 0.00,60.00,Tuesday
7,3.0916666666666663
8,8.783333333333333
9,0.0
318,20.001076525388253
319,0.004432597042083447
616,3122.119692357502
617,2691.326044137237
61,9688773.758894056
73,0.0
111,9537910.904878303
174,3110400.0
2,3, 1, 3, 0,12, 0.00,60.00,Tuesday
7,3.008333333333333
8,10.049999999999999
9,0.0
318,20.00000795372022
319,0.0038777527883601197
616,2744.965672973593
617,2237.7495539271736
61,8055898.394137826
73,0.0
111,7933581.604566147
174,3110400.0
2,3, 1, 3, 0,13, 0.00,60.00,Tuesday
7,2.4499999999999997
8,9.016666666666667
9,2.6666666666666665
318,20.000006716823787
319,0.0034061827659793483
616,2583.676077391263
617,2109.1587096911644
61,7592971.354888191
73,0.0
111,7477839.7825844865
174,3110400.0
2,3, 1, 3, 0,14, 0.00,60.00,Tuesday
7,2.1999999999999997
8,8.1
9,52.666666666666664
318,20.000006465224597
319,0.0033160881902009093
616,2351.7934776865472
617,1954.1524069793813
61,7034948.665125773
73,0.0
111,6928284.72695654
174,3110400.0
2,3, 1, 3, 0,15, 0.00,60.00,Tuesday
7,1.9083333333333332
8,8.566666666666666
9,190.5
318,20.00000589175816
319,0.003152211238618939
616,2099.214679771981
617,1769.8040588714473
61,6371294.611937211
73,0.0
111,6274839.3306721635
174,3110400.0
2,3, 1, 3, 0,16, 0.00,60.00,Tuesday
7,1.7
8,9.366666666666667
9,48.083333333333336
318,20.00000757204778
319,0.002712400874640178
616,3054.3378474870683
617,2435.9572814417597
61,8769446.213190336
73,0.0
111,8636458.561001891
174,2073600.0
2,3, 1, 3, 0,17, 0.00,60.00,Tuesday
7,0.7083333333333335
8,8.766666666666667
9,3.0833333333333326
318,20.0017569790208
319,0.0025471683243043033
616,3465.1268987277376
617,2871.4132804289493
61,10337087.809544217
73,0.0
111,10177904.157918207
174,2073600.0
2,3, 1, 3, 0,18, 0.00,60.00,Tuesday
7,0.0
8,8.566666666666666
9,0.0
318,9.63191452446487
319,0.0023950313079746793
616,0.0
617,0.0
61,0.0
73,0.0
111,0.0
174,0.0
2,3, 1, 3, 0,19, 0.00,60.00,Tuesday
7,0.0
8,10.008333333333333
9,0.0
318,6.951202233207256
319,0.002258229441958387
616,0.0
617,0.0
61,0.0
73,0.0
111,0.0
174,0.0
2,3, 1, 3, 0,20, 0.00,60.00,Tuesday
7,-0.6416666666666667
8,13.075000000000001
9,0.0
318,5.683066453984893
319,0.002027860405585879
616,0.0
617,0.0
61,0.0
73,0.0
111,0.0
174,0.0
2,3, 1, 3, 0,21, 0.00,60.00,Tuesday
7,-2.733333333333333
8,15.049999999999999
9,0.0
318,4.132107974218316
319,0.0016677283711397078
616,0.0
617,0.0
61,0.0
73,0.0
111,0.0
174,0.0
2,3, 1, 3, 0,22, 0.00,60.00,Tuesday
7,-5.183333333333334
8,14.950000000000001
9,0.0
318,2.3431122239794413
319,0.0013851978336630385
616,0.0
617,0.0
61,0.0
73,0.0
111,0.0
174,0.0
2,3, 1, 3, 0,23, 0.00,60.00,Tuesday
7,-6.741666666666667
8,12.133333333333333
9,0.0
318,0.8498719648834498
319,0.0011935674138698717
616,0.0
617,0.0
61,0.0
73,0.0
111,0.0
174,0.0
2,3, 1, 3, 0,24, 0.00,60.00,Tuesday
7,-7.841666666666666
8,10.299999999999999
9,0.0
318,-0.39791013746048765
319,0.0010270042375959611
616,0.0
617,0.0
61,0.0
73,0.0
111,0.0
174,0.0
2,4, 1, 4, 0, 1, 0.00,60.00,Wednesday
7,-8.65
8,8.491666666666667
9,0.0
318,-1.4878701639996113
319,0.0009221333784679639
616,0.0
617,0.0
61,0.0
73,0.0
111,0.0
174,0.0
2,4, 1, 4, 0, 2, 0.00,60.00,Wednesday
7,-9.191666666666666
8,7.7250000000000005
9,0.0
318,-2.3952194982696846
319,0.0008967591651987806
616,0.0
617,0.0
61,0.0
73,0.0
111,0.0
174,0.0
2,4, 1, 4, 0, 3, 0.00,60.00,Wednesday
7,-9.4
8,7.283333333333334
9,0.0
318,-3.111323319724813
319,0.0008308791160229269
616,0.0
617,0.0
61,0.0
73,0.0
111,0.0
174,0.0
2,4, 1, 4, 0, 4, 0.00,60.00,Wednesday
7,-9.75
8,5.358333333333334
9,0.0
318,-3.761863960307014
319,0.0008003555269428657
616,0.0
617,0.0
61,0.0
73,0.0
111,0.0
174,0.0
2,4, 1, 4, 0, 5, 0.00,60.00,Wednesday
7,-10.350000000000001
8,4.925
9,0.0
318,-4.485157505235396
319,0.0008416778457983236
616,0.0
617,0.0
61,0.0
73,0.0
111,0.0
174,0.0
2,4, 1, 4, 0, 6, 0.00,60.00,Wednesday
7,-10.600000000000001
8,5.591666666666666
9,0.0
318,-5.064685863939711
319,0.0008617864907973522
616,0.0
617,0.0
61,0.0
73,0.0
111,0.0
174,0.0
2,4, 1, 4, 0, 7, 0.00,60.00,Wednesday
7,-10.891666666666666
8,5.333333333333333
9,0.0
318,-5.567138249961978
319,0.000864685757840468
616,0.0
617,0.0
61,0.0
73,0.0
111,0.0
174,0.0
2,4, 1, 4, 0, 8, 0.00,60.00,Wednesday
7,-11.1
8,4.3583333333333325
9,48.05555555555555
318,18.710906921967325
319,0.0012124583890233934
616,11921.037484828092
617,15312.272871507666
61,55124182.337427594
73,0.0
111,54914513.8104481
174,3110400.0
2,4, 1, 4, 0, 9, 0.00,60.00,Wednesday
7,-10.808333333333332
8,4.191666666666666
9,366.6666666666667
318,20.001797418050927
319,0.001411019471080864
616,8202.98496815855
617,11834.671992422745
61,42604819.17272188
73,0.0
111,42395150.64574239
174,3110400.0
2,4, 1, 4, 0,10, 0.00,60.00,Wednesday
7,-10.25
8,4.925
9,609.5833333333334
318,20.001700179294637
319,0.0014255975653742516
616,6643.179925305417
617,10218.644279210072
61,36787119.405156255
73,0.0
111,36577450.87817676
174,3110400.0
2,4, 1, 4, 0,11, 0.00,60.00,Wednesday
7,-9.65
8,4.7749999999999995
9,529.6666666666666
318,20.00150869398262
319,0.0014568120017894497
616,5846.751961016943
617,9345.051663000524
61,33642185.98680189
73,0.0
111,33432517.459822398
174,3110400.0
2,4, 1, 4, 0,12, 0.00,60.00,Wednesday
7,-8.758333333333333
8,3.641666666666667
9,202.49999999999997
318,20.001407715196965
319,0.0015320900207590803
616,5367.4426507878625
617,8764.501548231143
61,31552205.573632114
73,0.0
111,31342537.046652615
174,3110400.0
2,4, 1, 4, 0,13, 0.00,60.00,Wednesday
7,-7.658333333333334
8,2.9250000000000003
9,50.5
318,20.00066119840564
319,0.0016468928829613749
616,4946.493626585497
617,6699.006359357661
61,24116422.89368758
73,0.0
111,23906754.36670809
174,3110400.0
2,4, 1, 4, 0,14, 0.00,60.00,Wednesday
7,-6.558333333333334
8,2.4499999999999997
9,77.41666666666667
318,20.000333123761795
319,0.0018045043275992647
616,4478.04209461007
617,5620.2409316092135
61,20232867.353793167
73,0.0
111,20023198.82681367
174,3110400.0
2,4, 1, 4, 0,15, 0.00,60.00,Wednesday
7,-5.458333333333333
8,3.016666666666667
9,162.33333333333334
318,20.00020213087578
319,0.0019137783477341794
616,3973.2654232396394
617,4766.725754096589
61,17160212.71474772
73,0.0
111,16950544.187768225
174,3110400.0
2,4, 1, 4, 0,16, 0.00,60.00,Wednesday
7,-4.3583333333333325
8,4.066666666666666
9,64.33333333333333
318,20.000139044145456
319,0.0018280344574668377
616,4685.8338577684835
617,5108.880268078693
61,18391968.965083294
73,0.0
111,18182300.438103803
174,2073600.0
2,4, 1, 4, 0,17, 0.00,60.00,Wednesday
7,-3.899999999999999
8,3.116666666666667
9,5.333333333333332
318,20.00006516319361
319,0.001842519796315326
616,4779.0582044870025
617,5051.509501922356
61,18185434.206920482
73,0.0
111,17975765.67994099
174,2073600.0
2,4, 1, 4, 0,18, 0.00,60.00,Wednesday
7,-4.541666666666667
8,2.5500000000000003
9,0.0
318,7.649666971789119
319,0.0017611236045521922
616,0.0
617,0.0
61,0.0
73,0.0
111,0.0
174,0.0
2,4, 1, 4, 0,19, 0.00,60.00,Wednesday
7,-5.0
8,2.158333333333333
9,0.0
318,4.212557499258404
319,0.0017626516484789273
616,0.0
617,0.0
61,0.0
73,0.0
111,0.0
174,0.0
2,4, 1, 4, 0,20, 0.00,60.00,Wednesday
7,-3.7166666666666672
8,2.5166666666666666
9,0.0
318,3.2915128426624176
319,0.001951176703510301
616,0.0
617,0.0
61,0.0
73,0.0
111,0.0
174,0.0
2,4, 1, 4, 0,21, 0.00,60.00,Wednesday
7,-2.4499999999999997
8,3.391666666666667
9,0.0
318,3.018446193948396
319,0.002292413750440704
616,0.0
617,0.0
61,0.0
73,0.0
111,0.0
174,0.0
2,4, 1, 4, 0,22, 0.00,60.00,Wednesday
7,-2.5500000000000003
8,3.1333333333333333
9,0.0
318,2.4884812645506886
319,0.002330948299873131
616,0.0
617,0.0
61,0.0
73,0.0
111,0.0
174,0.0
2,4, 1, 4, 0,23, 0.00,60.00,Wednesday
7,-2.8000000000000003
8,2.8000000000000003
9,0.0
318,1.9053108210897651
319,0.00223887202235019
616,0.0
617,0.0
61,0.0
73,0.0
111,0.0
174,0.0
2,4, 1, 4, 0,24, 0.00,60.00,Wednesday
7,-2.8000000000000003
8,2.975
9,0.0
318,1.488168286740251
319,0.0021652240914470885
616,0.0
617,0.0
61,0.0
73,0.0
111,0.0
174,0.0
2,5, 1, 5, 0, 1, 0.00,60.00,Thursday
7,-2.158333333333333
8,3.5666666666666664
9,0.0
318,1.3730815645575796
319,0.0022020709474649494
616,0.0
617,0.0
61,0.0
73,0.0
111,0.0
174,0.0
2,5, 1, 5, 0, 2, 0.00,60.00,Thursday
7,-1.3500000000000003
8,3.725
9,0.0
318,1.5153245415595886
319,0.0022707506481918984
616,0.0
617,0.0
61,0.0
73,0.0
111,0.0
174,0.0
2,5, 1, 5, 0, 3, 0.00,60.00,Thursday
7,-1.45
8,4.066666666666666
9,0.0
318,1.385184337835064
319,0.0023141577072027988
616,0.0
617,0.0
61,0.0
73,0.0
111,0.0
174,0.0
2,5, 1, 5, 0, 4, 0.00,60.00,Thursday
7,-1.7
8,3.9333333333333336
9,0.0
318,1.1241775458089347
319,0.0023638600574580493
616,0.0
617,0.0
61,0.0
73,0.0
111,0.0
174,0.0
2,5, 1, 5, 0, 5, 0.00,60.00,Thursday
7,-1.7
8,3.775
9,0.0
318,0.9942651259917339
319,0.0023298898064906507
616,0.0
617,0.0
61,0.0
73,0.0
111,0.0
174,0.0
2,5, 1, 5, 0, 6, 0.00,60.00,Thursday
7,-1.7
8,3.4333333333333336
9,0.0
318,0.8782742763037698
319,0.0022715300644881357
616,0.0
617,0.0
61,0.0
73,0.0
111,0.0
174,0.0
2,5, 1, 5, 0, 7, 0.00,60.00,Thursday
7,-1.9916666666666671
8,3.391666666666667
9,0.0
318,0.652017952419835
319,0.0022679900004282977
616,0.0
617,0.0
61,0.0
73,0.0
111,0.0
174,0.0
2,5, 1, 5, 0, 8, 0.00,60.00,Thursday
7,-2.841666666666667
8,3.3083333333333336
9,18.888888888888886
318,19.54910117106454
319,0.002577644610828473
616,8288.402484863976
617,8440.811851059347
61,30386922.663813643
73,0.0
111,30177254.136834152
174,3110400.0
2,5, 1, 5, 0, 9, 0.00,60.00,Thursday
7,-3.008333333333333
8,2.5749999999999997
9,123.33333333333333
318,20.00036734274374
319,0.002760996484615606
616,5459.393617309765
617,5834.179904381857
61,21003047.65577469
73,0.0
111,20793379.12879519
174,3110400.0
2,5, 1, 5, 0,10, 0.00,60.00,Thursday
7,-2.158333333333333
8,2.1999999999999997
9,123.66666666666667
318,20.000151983619606
319,0.00286311183669165
616,4347.869118378079
617,4459.996504206402
61,16055987.41514305
73,0.0
111,15846318.888163557
174,3110400.0
2,5, 1, 5, 0,11, 0.00,60.00,Thursday
7,-1.0583333333333333
8,2.725
9,85.83333333333333
318,20.000912824973373
319,0.002942640701433469
616,3594.656429985405
617,3434.6660697817956
61,12364797.851214463
73,0.0
111,12170565.131272845
174,3110400.0
2,5, 1, 5, 0,12, 0.00,60.00,Thursday
7,0.09999999999999998
8,1.2916666666666667
9,24.666666666666668
318,20.00155333688694
319,0.0030809841956827115
616,3057.866652193516
617,2814.1713591114462
61,10131016.892801208
73,0.0
111,9972855.458576834
174,3110400.0
2,5, 1, 5, 0,13, 0.00,60.00,Thursday
7,0.8916666666666666
8,0.0
9,41.833333333333336
318,20.0000135100273
319,0.0032694541185449427
616,2628.1433181906664
617,2382.43524812815
61,8576766.89326134
73,0.0
111,8443757.76120884
174,3110400.0
2,5, 1, 5, 0,14, 0.00,60.00,Thursday
7,1.45
8,0.0
9,6.749999999999999
318,20.000007589076663
319,0.003333925745901234
616,2315.166620358105
617,2059.6640586763942
61,7414790.611235019
73,0.0
111,7300646.229197131
174,3110400.0
2,5, 1, 5, 0,15, 0.00,60.00,Thursday
7,1.3500000000000003
8,0.0
9,0.24999999999999992
318,20.000007698401692
319,0.0033896165460868873
616,2265.181836739846
617,2053.3546575885402
61,7392076.767318746
73,0.0
111,7277841.479181887
174,3110400.0
2,5, 1, 5, 0,16, 0.00,60.00,Thursday
7,0.8083333333333332
8,1.2833333333333334
9,0.0
318,20.002764782709562
319,0.0031091063127552374
616,3358.473807815599
617,2949.384744558452
61,10617785.080410428
73,0.0
111,10452287.757760944
174,2073600.0
2,5, 1, 5, 0,17, 0.00,60.00,Thursday
7,0.6
8,3.016666666666667
9,0.0
318,20.002571717107955
319,0.0029375985067315847
616,3544.6753972873644
617,3086.64934397549
61,11111937.638311766
73,0.0
111,10938320.474980725
174,2073600.0
2,5, 1, 5, 0,18, 0.00,60.00,Thursday
7,0.25
8,2.783333333333333
9,0.0
318,9.785331335372666
319,0.0027383110311008326
616,0.0
617,0.0
61,0.0
73,0.0
111,0.0
174,0.0
2,5, 1, 5, 0,19, 0.00,60.00,Thursday
7,-0.6416666666666667
8,4.825
9,0.0
318,6.859000019061532
319,0.002572735567368005
616,0.0
617,0.0
61,0.0
73,0.0
111,0.0
174,0.0
2,5, 1, 5, 0,20, 0.00,60.00,Thursday
7,-2.3833333333333333
8,6.991666666666667
9,0.0
318,5.130547828182524
319,0.002370101045393419
616,0.0
617,0.0
61,0.0
73,0.0
111,0.0
174,0.0
2,5, 1, 5, 0,21, 0.00,60.00,Thursday
7,-3.9416666666666664
8,6.908333333333334
9,0.0
318,3.562015993963806
319,0.002058776621549351
616,0.0
617,0.0
61,0.0
73,0.0
111,0.0
174,0.0
2,5, 1, 5, 0,22, 0.00,60.00,Thursday
7,-4.75
8,4.891666666666667
9,0.0
318,2.388541814071535
319,0.0018369904274653478
616,0.0
617,0.0
61,0.0
73,0.0
111,0.0
174,0.0
2,5, 1, 5, 0,23, 0.00,60.00,Thursday
7,-5.3500000000000005
8,4.416666666666667
9,0.0
318,1.410090119960368
319,0.0017493142169434665
616,0.0
617,0.0
61,0.0
73,0.0
111,0.0
174,0.0
2,5, 1, 5, 0,24, 0.00,60.00,Thursday
7,-5.891666666666666
8,5.0
9,0.0
318,0.5306134473461518
319,0.0016732825789885289
616,0.0
617,0.0
61,0.0
73,0.0
111,0.0
174,0.0
2,6, 1, 6, 0, 1, 0.00,60.00,Friday
7,-6.45
8,4.650000000000001
9,0.0
318,-0.2901387477068608
319,0.0016191813848351628
616,0.0
617,0.0
61,0.0
73,0.0
111,0.0
174,0.0
2,6, 1, 6, 0, 2, 0.00,60.00,Friday
7,-7.341666666666666
8,4.75
9,0.0
318,-1.1891660636810628
319,0.0015858626600703668
616,0.0
617,0.0
61,0.0
73,0.0
111,0.0
174,0.0
2,6, 1, 6, 0, 3, 0.00,60.00,Friday
7,-7.799999999999998
8,5.466666666666666
9,0.0
318,-1.9494269807745879
319,0.0015133044751068734
616,0.0
617,0.0
61,0.0
73,0.0
111,0.0
174,0.0
2,6, 1, 6, 0, 4, 0.00,60.00,Friday
7,-8.091666666666667
8,6.1499999999999995
9,0.0
318,-2.528334899023767
319,0.0014466622387429408
616,0.0
617,0.0
61,0.0
73,0.0
111,0.0
174,0.0
2,6, 1, 6, 0, 5, 0.00,60.00,Friday
7,-8.299999999999999
8,6.866666666666667
9,0.0
318,-3.0455700472436837
319,0.0014272480040788628
616,0.0
617,0.0
61,0.0
73,0.0
111,0.0
174,0.0
2,6, 1, 6, 0, 6, 0.00,60.00,Friday
7,-8.008333333333333
8,7.2
9,0.0
318,-3.293919065265882
319,0.0014939373227070554
616,0.0
617,0.0
61,0.0
73,0.0
111,0.0
174,0.0
2,6, 1, 6, 0, 7, 0.00,60.00,Friday
7,-7.799999999999998
8,6.091666666666666
9,0.0
318,-3.446867051218924
319,0.0015660903084987311
616,0.0
617,0.0
61,0.0
73,0.0
111,0.0
174,0.0
2,6, 1, 6, 0, 8, 0.00,60.00,Friday
7,-7.799999999999998
8,5.591666666666666
9,0.0
318,19.270325379696384
319,0.001965984984554704
616,10575.1779751638
617,12142.818046031063
61,43714144.96571183
73,0.0
111,43504476.43873234
174,3110400.0
2,6, 1, 6, 0, 9, 0.00,60.00,Friday
7,-7.799999999999998
8,6.1499999999999995
9,0.49999999999999994
318,20.00090672166093
319,0.0021782555640166754
616,7424.100475637693
617,9194.462403991112
61,33100064.65436801
73,0.0
111,32890396.127388515
174,3110400.0
2,6, 1, 6, 0,10, 0.00,60.00,Friday
7,-7.45
8,5.233333333333334
9,2.25
318,20.00078379902047
319,0.002201180674190241
616,6355.533072871859
617,8012.4841213081745
61,28844942.83670943
73,0.0
111,28635274.309729934
174,3110400.0
2,6, 1, 6, 0,11, 0.00,60.00,Friday
7,-6.908333333333334
8,3.9333333333333336
9,0.24999999999999992
318,20.00061940371018
319,0.0022360811157653014
616,5697.492612376191
617,7184.449140399726
61,25864016.90543901
73,0.0
111,25654348.378459517
174,3110400.0
2,6, 1, 6, 0,12, 0.00,60.00,Friday
7,-6.3500000000000005
8,4.591666666666667
9,0.0
318,20.000522202083097
319,0.002293354396652715
616,5207.496768231258
617,6522.308663358622
61,23480311.188091032
73,0.0
111,23270642.66111154
174,3110400.0
2,6, 1, 6, 0,13, 0.00,60.00,Friday
7,-6.1000000000000005
8,4.308333333333334
9,0.0
318,20.000440762966832
319,0.002363692402772944
616,5022.782311170852
617,6292.687194274443
61,22653673.899387993
73,0.0
111,22444005.3724085
174,3110400.0
2,6, 1, 6, 0,14, 0.00,60.00,Friday
7,-5.808333333333333
8,2.783333333333333
9,0.0
318,20.00043032377243
319,0.0024692720173509278
616,4826.024667603535
617,6043.207395059687
61,21755546.622214872
73,0.0
111,21545878.09523538
174,3110400.0
2,6, 1, 6, 0,15, 0.00,60.00,Friday
7,-5.6000000000000005
8,2.5500000000000003
9,0.0
318,20.000384137605792
319,0.002516247821482988
616,4595.0075472035005
617,5764.398264761268
61,20751833.75314057
73,0.0
111,20542165.22616107
174,3110400.0
2,6, 1, 6, 0,16, 0.00,60.00,Friday
7,-5.6000000000000005
8,2.158333333333333
9,0.0
318,20.000345552729417
319,0.0023460325095672058
616,5538.671381027171